# vtk DataFile Version 3.0
#This file was generated by the deal.II library on 2016/3/22 at 14:37:42
ASCII
DATASET UNSTRUCTURED_GRID

POINTS 12288 double
0 0 0
0.015625 0 0
0 0.015625 0
0.015625 0.015625 0
0.015625 0 0
0.03125 0 0
0.015625 0.015625 0
0.03125 0.015625 0
0 0.015625 0
0.015625 0.015625 0
0 0.03125 0
0.015625 0.03125 0
0.015625 0.015625 0
0.03125 0.015625 0
0.015625 0.03125 0
0.03125 0.03125 0
0.03125 0 0
0.046875 0 0
0.03125 0.015625 0
0.046875 0.015625 0
0.046875 0 0
0.0625 0 0
0.046875 0.015625 0
0.0625 0.015625 0
0.03125 0.015625 0
0.046875 0.015625 0
0.03125 0.03125 0
0.046875 0.03125 0
0.046875 0.015625 0
0.0625 0.015625 0
0.046875 0.03125 0
0.0625 0.03125 0
0 0.03125 0
0.015625 0.03125 0
0 0.046875 0
0.015625 0.046875 0
0.015625 0.03125 0
0.03125 0.03125 0
0.015625 0.046875 0
0.03125 0.046875 0
0 0.046875 0
0.015625 0.046875 0
0 0.0625 0
0.015625 0.0625 0
0.015625 0.046875 0
0.03125 0.046875 0
0.015625 0.0625 0
0.03125 0.0625 0
0.03125 0.03125 0
0.046875 0.03125 0
0.03125 0.046875 0
0.046875 0.046875 0
0.046875 0.03125 0
0.0625 0.03125 0
0.046875 0.046875 0
0.0625 0.046875 0
0.03125 0.046875 0
0.046875 0.046875 0
0.03125 0.0625 0
0.046875 0.0625 0
0.046875 0.046875 0
0.0625 0.046875 0
0.046875 0.0625 0
0.0625 0.0625 0
0.0625 0 0
0.078125 0 0
0.0625 0.015625 0
0.078125 0.015625 0
0.078125 0 0
0.09375 0 0
0.078125 0.015625 0
0.09375 0.015625 0
0.0625 0.015625 0
0.078125 0.015625 0
0.0625 0.03125 0
0.078125 0.03125 0
0.078125 0.015625 0
0.09375 0.015625 0
0.078125 0.03125 0
0.09375 0.03125 0
0.09375 0 0
0.109375 0 0
0.09375 0.015625 0
0.109375 0.015625 0
0.109375 0 0
0.125 0 0
0.109375 0.015625 0
0.125 0.015625 0
0.09375 0.015625 0
0.109375 0.015625 0
0.09375 0.03125 0
0.109375 0.03125 0
0.109375 0.015625 0
0.125 0.015625 0
0.109375 0.03125 0
0.125 0.03125 0
0.0625 0.03125 0
0.078125 0.03125 0
0.0625 0.046875 0
0.078125 0.046875 0
0.078125 0.03125 0
0.09375 0.03125 0
0.078125 0.046875 0
0.09375 0.046875 0
0.0625 0.046875 0
0.078125 0.046875 0
0.0625 0.0625 0
0.078125 0.0625 0
0.078125 0.046875 0
0.09375 0.046875 0
0.078125 0.0625 0
0.09375 0.0625 0
0.09375 0.03125 0
0.109375 0.03125 0
0.09375 0.046875 0
0.109375 0.046875 0
0.109375 0.03125 0
0.125 0.03125 0
0.109375 0.046875 0
0.125 0.046875 0
0.09375 0.046875 0
0.109375 0.046875 0
0.09375 0.0625 0
0.109375 0.0625 0
0.109375 0.046875 0
0.125 0.046875 0
0.109375 0.0625 0
0.125 0.0625 0
0 0.0625 0
0.015625 0.0625 0
0 0.078125 0
0.015625 0.078125 0
0.015625 0.0625 0
0.03125 0.0625 0
0.015625 0.078125 0
0.03125 0.078125 0
0 0.078125 0
0.015625 0.078125 0
0 0.09375 0
0.015625 0.09375 0
0.015625 0.078125 0
0.03125 0.078125 0
0.015625 0.09375 0
0.03125 0.09375 0
0.03125 0.0625 0
0.046875 0.0625 0
0.03125 0.078125 0
0.046875 0.078125 0
0.046875 0.0625 0
0.0625 0.0625 0
0.046875 0.078125 0
0.0625 0.078125 0
0.03125 0.078125 0
0.046875 0.078125 0
0.03125 0.09375 0
0.046875 0.09375 0
0.046875 0.078125 0
0.0625 0.078125 0
0.046875 0.09375 0
0.0625 0.09375 0
0 0.09375 0
0.015625 0.09375 0
0 0.109375 0
0.015625 0.109375 0
0.015625 0.09375 0
0.03125 0.09375 0
0.015625 0.109375 0
0.03125 0.109375 0
0 0.109375 0
0.015625 0.109375 0
0 0.125 0
0.015625 0.125 0
0.015625 0.109375 0
0.03125 0.109375 0
0.015625 0.125 0
0.03125 0.125 0
0.03125 0.09375 0
0.046875 0.09375 0
0.03125 0.109375 0
0.046875 0.109375 0
0.046875 0.09375 0
0.0625 0.09375 0
0.046875 0.109375 0
0.0625 0.109375 0
0.03125 0.109375 0
0.046875 0.109375 0
0.03125 0.125 0
0.046875 0.125 0
0.046875 0.109375 0
0.0625 0.109375 0
0.046875 0.125 0
0.0625 0.125 0
0.0625 0.0625 0
0.078125 0.0625 0
0.0625 0.078125 0
0.078125 0.078125 0
0.078125 0.0625 0
0.09375 0.0625 0
0.078125 0.078125 0
0.09375 0.078125 0
0.0625 0.078125 0
0.078125 0.078125 0
0.0625 0.09375 0
0.078125 0.09375 0
0.078125 0.078125 0
0.09375 0.078125 0
0.078125 0.09375 0
0.09375 0.09375 0
0.09375 0.0625 0
0.109375 0.0625 0
0.09375 0.078125 0
0.109375 0.078125 0
0.109375 0.0625 0
0.125 0.0625 0
0.109375 0.078125 0
0.125 0.078125 0
0.09375 0.078125 0
0.109375 0.078125 0
0.09375 0.09375 0
0.109375 0.09375 0
0.109375 0.078125 0
0.125 0.078125 0
0.109375 0.09375 0
0.125 0.09375 0
0.0625 0.09375 0
0.078125 0.09375 0
0.0625 0.109375 0
0.078125 0.109375 0
0.078125 0.09375 0
0.09375 0.09375 0
0.078125 0.109375 0
0.09375 0.109375 0
0.0625 0.109375 0
0.078125 0.109375 0
0.0625 0.125 0
0.078125 0.125 0
0.078125 0.109375 0
0.09375 0.109375 0
0.078125 0.125 0
0.09375 0.125 0
0.09375 0.09375 0
0.109375 0.09375 0
0.09375 0.109375 0
0.109375 0.109375 0
0.109375 0.09375 0
0.125 0.09375 0
0.109375 0.109375 0
0.125 0.109375 0
0.09375 0.109375 0
0.109375 0.109375 0
0.09375 0.125 0
0.109375 0.125 0
0.109375 0.109375 0
0.125 0.109375 0
0.109375 0.125 0
0.125 0.125 0
0.125 0 0
0.140625 0 0
0.125 0.015625 0
0.140625 0.015625 0
0.140625 0 0
0.15625 0 0
0.140625 0.015625 0
0.15625 0.015625 0
0.125 0.015625 0
0.140625 0.015625 0
0.125 0.03125 0
0.140625 0.03125 0
0.140625 0.015625 0
0.15625 0.015625 0
0.140625 0.03125 0
0.15625 0.03125 0
0.15625 0 0
0.171875 0 0
0.15625 0.015625 0
0.171875 0.015625 0
0.171875 0 0
0.1875 0 0
0.171875 0.015625 0
0.1875 0.015625 0
0.15625 0.015625 0
0.171875 0.015625 0
0.15625 0.03125 0
0.171875 0.03125 0
0.171875 0.015625 0
0.1875 0.015625 0
0.171875 0.03125 0
0.1875 0.03125 0
0.125 0.03125 0
0.140625 0.03125 0
0.125 0.046875 0
0.140625 0.046875 0
0.140625 0.03125 0
0.15625 0.03125 0
0.140625 0.046875 0
0.15625 0.046875 0
0.125 0.046875 0
0.140625 0.046875 0
0.125 0.0625 0
0.140625 0.0625 0
0.140625 0.046875 0
0.15625 0.046875 0
0.140625 0.0625 0
0.15625 0.0625 0
0.15625 0.03125 0
0.171875 0.03125 0
0.15625 0.046875 0
0.171875 0.046875 0
0.171875 0.03125 0
0.1875 0.03125 0
0.171875 0.046875 0
0.1875 0.046875 0
0.15625 0.046875 0
0.171875 0.046875 0
0.15625 0.0625 0
0.171875 0.0625 0
0.171875 0.046875 0
0.1875 0.046875 0
0.171875 0.0625 0
0.1875 0.0625 0
0.1875 0 0
0.203125 0 0
0.1875 0.015625 0
0.203125 0.015625 0
0.203125 0 0
0.21875 0 0
0.203125 0.015625 0
0.21875 0.015625 0
0.1875 0.015625 0
0.203125 0.015625 0
0.1875 0.03125 0
0.203125 0.03125 0
0.203125 0.015625 0
0.21875 0.015625 0
0.203125 0.03125 0
0.21875 0.03125 0
0.21875 0 0
0.234375 0 0
0.21875 0.015625 0
0.234375 0.015625 0
0.234375 0 0
0.25 0 0
0.234375 0.015625 0
0.25 0.015625 0
0.21875 0.015625 0
0.234375 0.015625 0
0.21875 0.03125 0
0.234375 0.03125 0
0.234375 0.015625 0
0.25 0.015625 0
0.234375 0.03125 0
0.25 0.03125 0
0.1875 0.03125 0
0.203125 0.03125 0
0.1875 0.046875 0
0.203125 0.046875 0
0.203125 0.03125 0
0.21875 0.03125 0
0.203125 0.046875 0
0.21875 0.046875 0
0.1875 0.046875 0
0.203125 0.046875 0
0.1875 0.0625 0
0.203125 0.0625 0
0.203125 0.046875 0
0.21875 0.046875 0
0.203125 0.0625 0
0.21875 0.0625 0
0.21875 0.03125 0
0.234375 0.03125 0
0.21875 0.046875 0
0.234375 0.046875 0
0.234375 0.03125 0
0.25 0.03125 0
0.234375 0.046875 0
0.25 0.046875 0
0.21875 0.046875 0
0.234375 0.046875 0
0.21875 0.0625 0
0.234375 0.0625 0
0.234375 0.046875 0
0.25 0.046875 0
0.234375 0.0625 0
0.25 0.0625 0
0.125 0.0625 0
0.140625 0.0625 0
0.125 0.078125 0
0.140625 0.078125 0
0.140625 0.0625 0
0.15625 0.0625 0
0.140625 0.078125 0
0.15625 0.078125 0
0.125 0.078125 0
0.140625 0.078125 0
0.125 0.09375 0
0.140625 0.09375 0
0.140625 0.078125 0
0.15625 0.078125 0
0.140625 0.09375 0
0.15625 0.09375 0
0.15625 0.0625 0
0.171875 0.0625 0
0.15625 0.078125 0
0.171875 0.078125 0
0.171875 0.0625 0
0.1875 0.0625 0
0.171875 0.078125 0
0.1875 0.078125 0
0.15625 0.078125 0
0.171875 0.078125 0
0.15625 0.09375 0
0.171875 0.09375 0
0.171875 0.078125 0
0.1875 0.078125 0
0.171875 0.09375 0
0.1875 0.09375 0
0.125 0.09375 0
0.140625 0.09375 0
0.125 0.109375 0
0.140625 0.109375 0
0.140625 0.09375 0
0.15625 0.09375 0
0.140625 0.109375 0
0.15625 0.109375 0
0.125 0.109375 0
0.140625 0.109375 0
0.125 0.125 0
0.140625 0.125 0
0.140625 0.109375 0
0.15625 0.109375 0
0.140625 0.125 0
0.15625 0.125 0
0.15625 0.09375 0
0.171875 0.09375 0
0.15625 0.109375 0
0.171875 0.109375 0
0.171875 0.09375 0
0.1875 0.09375 0
0.171875 0.109375 0
0.1875 0.109375 0
0.15625 0.109375 0
0.171875 0.109375 0
0.15625 0.125 0
0.171875 0.125 0
0.171875 0.109375 0
0.1875 0.109375 0
0.171875 0.125 0
0.1875 0.125 0
0.1875 0.0625 0
0.203125 0.0625 0
0.1875 0.078125 0
0.203125 0.078125 0
0.203125 0.0625 0
0.21875 0.0625 0
0.203125 0.078125 0
0.21875 0.078125 0
0.1875 0.078125 0
0.203125 0.078125 0
0.1875 0.09375 0
0.203125 0.09375 0
0.203125 0.078125 0
0.21875 0.078125 0
0.203125 0.09375 0
0.21875 0.09375 0
0.21875 0.0625 0
0.234375 0.0625 0
0.21875 0.078125 0
0.234375 0.078125 0
0.234375 0.0625 0
0.25 0.0625 0
0.234375 0.078125 0
0.25 0.078125 0
0.21875 0.078125 0
0.234375 0.078125 0
0.21875 0.09375 0
0.234375 0.09375 0
0.234375 0.078125 0
0.25 0.078125 0
0.234375 0.09375 0
0.25 0.09375 0
0.1875 0.09375 0
0.203125 0.09375 0
0.1875 0.109375 0
0.203125 0.109375 0
0.203125 0.09375 0
0.21875 0.09375 0
0.203125 0.109375 0
0.21875 0.109375 0
0.1875 0.109375 0
0.203125 0.109375 0
0.1875 0.125 0
0.203125 0.125 0
0.203125 0.109375 0
0.21875 0.109375 0
0.203125 0.125 0
0.21875 0.125 0
0.21875 0.09375 0
0.234375 0.09375 0
0.21875 0.109375 0
0.234375 0.109375 0
0.234375 0.09375 0
0.25 0.09375 0
0.234375 0.109375 0
0.25 0.109375 0
0.21875 0.109375 0
0.234375 0.109375 0
0.21875 0.125 0
0.234375 0.125 0
0.234375 0.109375 0
0.25 0.109375 0
0.234375 0.125 0
0.25 0.125 0
0 0.125 0
0.015625 0.125 0
0 0.140625 0
0.015625 0.140625 0
0.015625 0.125 0
0.03125 0.125 0
0.015625 0.140625 0
0.03125 0.140625 0
0 0.140625 0
0.015625 0.140625 0
0 0.15625 0
0.015625 0.15625 0
0.015625 0.140625 0
0.03125 0.140625 0
0.015625 0.15625 0
0.03125 0.15625 0
0.03125 0.125 0
0.046875 0.125 0
0.03125 0.140625 0
0.046875 0.140625 0
0.046875 0.125 0
0.0625 0.125 0
0.046875 0.140625 0
0.0625 0.140625 0
0.03125 0.140625 0
0.046875 0.140625 0
0.03125 0.15625 0
0.046875 0.15625 0
0.046875 0.140625 0
0.0625 0.140625 0
0.046875 0.15625 0
0.0625 0.15625 0
0 0.15625 0
0.015625 0.15625 0
0 0.171875 0
0.015625 0.171875 0
0.015625 0.15625 0
0.03125 0.15625 0
0.015625 0.171875 0
0.03125 0.171875 0
[...]
POINT_DATA 12288
SCALARS solution double 1
LOOKUP_TABLE default
3913.68 3912.68 3912.68 3911.68 3912.68 3909.69 3911.68 3908.68 3912.68 3911.68 3909.69 3908.68 3911.68 3908.68 3908.68 3905.67 3909.69 3904.7 3908.68 3903.69 3904.7 3897.75 3903.69 3896.73 3908.68 3903.69 3905.67 3900.65 3903.69 3896.73 3900.65 3893.66 3909.69 3908.68 3904.7 3903.69 3908.68 3905.67 3903.69 3900.65 3904.7 3903.69 3897.75 3896.73 3903.69 3900.65 3896.73 3893.66 3905.67 3900.65 3900.65 3895.6 3900.65 3893.66 3895.6 3888.55 3900.65 3895.6 3893.66 3888.55 3895.6 3888.55 3888.55 3881.43 3897.75 3888.85 3896.73 3887.81 3888.85 3878.02 3887.81 3876.97 3896.73 3887.81 3893.66 3884.7 3887.81 3876.97 3884.7 3873.81 3878.02 3865.31 3876.97 3864.23 3865.31 3850.74 3864.23 3849.65 3876.97 3864.23 3873.81 3861.01 3864.23 3849.65 3861.01 3846.36 3893.66 3884.7 3888.55 3879.53 3884.7 3873.81 3879.53 3868.55 3888.55 3879.53 3881.43 3872.3 3879.53 3868.55 3872.3 3861.21 3873.81 3861.01 3868.55 3855.65 3861.01 3846.36 3855.65 3840.88 3868.55 3855.65 3861.21 3848.18 3855.65 3840.88 3848.18 3833.25 3897.75 3896.73 3888.85 3887.81 3896.73 3893.66 3887.81 3884.7 3888.85 3887.81 3878.02 3876.97 3887.81 3884.7 3876.97 3873.81 3893.66 3888.55 3884.7 3879.53 3888.55 3881.43 3879.53 3872.3 3884.7 3879.53 3873.81 3868.55 3879.53 3872.3 3868.55 3861.21 3878.02 3876.97 3865.31 3864.23 3876.97 3873.81 3864.23 3861.01 3865.31 3864.23 3850.74 3849.65 3864.23 3861.01 3849.65 3846.36 3873.81 3868.55 3861.01 3855.65 3868.55 3861.21 3855.65 3848.18 3861.01 3855.65 3846.36 3840.88 3855.65 3848.18 3840.88 3833.25 3881.43 3872.3 3872.3 3863.06 3872.3 3861.21 3863.06 3851.81 3872.3 3863.06 3861.21 3851.81 3863.06 3851.81 3851.81 3840.38 3861.21 3848.18 3851.81 3838.6 3848.18 3833.25 3838.6 3823.46 3851.81 3838.6 3840.38 3826.94 3838.6 3823.46 3826.94 3811.55 3861.21 3851.81 3848.18 3838.6 3851.81 3840.38 3838.6 3826.94 3848.18 3838.6 3833.25 3823.46 3838.6 3826.94 3823.46 3811.55 3840.38 3826.94 3826.94 3813.25 3826.94 3811.55 3813.25 3797.56 3826.94 3813.25 3811.55 3797.56 3813.25 3797.56 3797.56 3781.53 3850.74 3834.38 3849.65 3833.25 3834.38 3816.26 3833.25 3815.11 3849.65 3833.25 3846.36 3829.89 3833.25 3815.11 3829.89 3811.65 3816.26 3796.45 3815.11 3795.26 3796.45 3775 3795.26 3773.79 3815.11 3795.26 3811.65 3791.71 3795.26 3773.79 3791.71 3770.13 3846.36 3829.89 3840.88 3824.28 3829.89 3811.65 3824.28 3805.91 3840.88 3824.28 3833.25 3816.46 3824.28 3805.91 3816.46 3797.88 3811.65 3791.71 3805.91 3785.81 3791.71 3770.13 3785.81 3764.05 3805.91 3785.81 3797.88 3777.56 3785.81 3764.05 3777.56 3755.56 3775 3752 3773.79 3750.75 3752 3727.52 3750.75 3726.22 3773.79 3750.75 3770.13 3746.98 3750.75 3726.22 3746.98 3722.33 3727.52 3701.62 3726.22 3700.28 3701.62 3674.41 3700.28 3673.03 3726.22 3700.28 3722.33 3696.27 3700.28 3673.03 3696.27 3668.87 3770.13 3746.98 3764.05 3740.71 3746.98 3722.33 3740.71 3715.86 3764.05 3740.71 3755.56 3731.95 3740.71 3715.86 3731.95 3706.82 3722.33 3696.27 3715.86 3689.58 3696.27 3668.87 3689.58 3661.96 3715.86 3689.58 3706.82 3680.24 3689.58 3661.96 3680.24 3652.3 3833.25 3816.46 3823.46 3806.44 3816.46 3797.88 3806.44 3787.6 3823.46 3806.44 3811.55 3794.25 3806.44 3787.6 3794.25 3775.09 3797.88 3777.56 3787.6 3766.99 3777.56 3755.56 3766.99 3744.68 3787.6 3766.99 3775.09 3754.12 3766.99 3744.68 3754.12 3731.42 3811.55 3794.25 3797.56 3779.92 3794.25 3775.09 3779.92 3760.38 3797.56 3779.92 3781.53 3763.49 3779.92 3760.38 3763.49 3743.51 3775.09 3754.12 3760.38 3739 3754.12 3731.42 3739 3715.84 3760.38 3739 3743.51 3721.65 3739 3715.84 3721.65 3697.96 3755.56 3731.95 3744.68 3720.73 3731.95 3706.82 3720.73 3695.23 3744.68 3720.73 3731.42 3707.06 3720.73 3695.23 3707.06 3681.11 3706.82 3680.24 3695.23 3668.26 3680.24 3652.3 3668.26 3639.9 3695.23 3668.26 3681.11 3653.66 3668.26 3639.9 3653.66 3624.8 3731.42 3707.06 3715.84 3690.98 3707.06 3681.11 3690.98 3664.5 3715.84 3690.98 3697.96 3672.53 3690.98 3664.5 3672.53 3645.42 3681.11 3653.66 3664.5 3636.48 3653.66 3624.8 3636.48 3607.01 3664.5 3636.48 3645.42 3616.74 3636.48 3607.01 3616.74 3586.57 3850.74 3849.65 3834.38 3833.25 3849.65 3846.36 3833.25 3829.89 3834.38 3833.25 3816.26 3815.11 3833.25 3829.89 3815.11 3811.65 3846.36 3840.88 3829.89 3824.28 3840.88 3833.25 3824.28 3816.46 3829.89 3824.28 3811.65 3805.91 3824.28 3816.46 3805.91 3797.88 3816.26 3815.11 3796.45 3795.26 3815.11 3811.65 3795.26 3791.71 3796.45 3795.26 3775 3773.79 3795.26 3791.71 3773.79 3770.13 3811.65 3805.91 3791.71 3785.81 3805.91 3797.88 3785.81 3777.56 3791.71 3785.81 3770.13 3764.05 3785.81 3777.56 3764.05 3755.56 3833.25 3823.46 3816.46 3806.44 3823.46 3811.55 3806.44 3794.25 3816.46 3806.44 3797.88 3787.6 3806.44 3794.25 3787.6 3775.09 3811.55 3797.56 3794.25 3779.92 3797.56 3781.53 3779.92 3763.49 3794.25 3779.92 3775.09 3760.38 3779.92 3763.49 3760.38 3743.51 3797.88 3787.6 3777.56 3766.99 3787.6 3775.09 3766.99 3754.12 3777.56 3766.99 3755.56 3744.68 3766.99 3754.12 3744.68 3731.42 3775.09 3760.38 3754.12 3739 3760.38 3743.51 3739 3721.65 3754.12 3739 3731.42 3715.84 3739 3721.65 3715.84 3697.96 3775 3773.79 3752 3750.75 3773.79 3770.13 3750.75 3746.98 3752 3750.75 3727.52 3726.22 3750.75 3746.98 3726.22 3722.33 3770.13 3764.05 3746.98 3740.71 3764.05 3755.56 3740.71 3731.95 3746.98 3740.71 3722.33 3715.86 3740.71 3731.95 3715.86 3706.82 3727.52 3726.22 3701.62 3700.28 3726.22 3722.33 3700.28 3696.27 3701.62 3700.28 3674.41 3673.03 3700.28 3696.27 3673.03 3668.87 3722.33 3715.86 3696.27 3689.58 3715.86 3706.82 3689.58 3680.24 3696.27 3689.58 3668.87 3661.96 3689.58 3680.24 3661.96 3652.3 3755.56 3744.68 3731.95 3720.73 3744.68 3731.42 3720.73 3707.06 3731.95 3720.73 3706.82 3695.23 3720.73 3707.06 3695.23 3681.11 3731.42 3715.84 3707.06 3690.98 3715.84 3697.96 3690.98 3672.53 3707.06 3690.98 3681.11 3664.5 3690.98 3672.53 3664.5 3645.42 3706.82 3695.23 3680.24 3668.26 3695.23 3681.11 3668.26 3653.66 3680.24 3668.26 3652.3 3639.9 3668.26 3653.66 3639.9 3624.8 3681.11 3664.5 3653.66 3636.48 3664.5 3645.42 3636.48 3616.74 3653.66 3636.48 3624.8 3607.01 3636.48 3616.74 3607.01 3586.57 3781.53 3763.49 3763.49 3745.02 3763.49 3743.51 3745.02 3724.54 3763.49 3745.02 3743.51 3724.54 3745.02 3724.54 3724.54 3703.5 3743.51 3721.65 3724.54 3702.12 3721.65 3697.96 3702.12 3677.83 3724.54 3702.12 3703.5 3680.47 3702.12 3677.83 3680.47 3655.5 3743.51 3724.54 3721.65 3702.12 3724.54 3703.5 3702.12 3680.47 3721.65 3702.12 3697.96 3677.83 3702.12 3680.47 3677.83 3655.5 3703.5 3680.47 3680.47 3656.75 3680.47 3655.5 3656.75 3631.03 3680.47 3656.75 3655.5 3631.03 3656.75 3631.03 3631.03 3604.49 3697.96 3672.53 3677.83 3651.74 3672.53 3645.42 3651.74 3623.93 3677.83 3651.74 3655.5 3628.68 3651.74 3623.93 3628.68 3600.08 3645.42 3616.74 3623.93 3594.5 3616.74 3586.57 3594.5 3563.52 3623.93 3594.5 3600.08 3569.79 3594.5 3563.52 3569.79 3537.91 3655.5 3628.68 3631.03 3603.39 3628.68 3600.08 3603.39 3573.91 3631.03 3603.39 3604.49 3575.95 3603.39 3573.91 3575.95 3545.49 3600.08 3569.79 3573.91 3542.67 3569.79 3537.91 3542.67 3509.78 3573.91 3542.67 3545.49 3513.21 3542.67 3509.78 3513.21 3479.21 3697.96 3677.83 3672.53 3651.74 3677.83 3655.5 3651.74 3628.68 3672.53 3651.74 3645.42 3623.93 3651.74 3628.68 3623.93 3600.08 3655.5 3631.03 3628.68 3603.39 3631.03 3604.49 3603.39 3575.95 3628.68 3603.39 3600.08 3573.91 3603.39 3575.95 3573.91 3545.49 3645.42 3623.93 3616.74 3594.5 3623.93 3600.08 3594.5 3569.79 3616.74 3594.5 3586.57 3563.52 3594.5 3569.79 3563.52 3537.91 3600.08 3573.91 3569.79 3542.67 3573.91 3545.49 3542.67 3513.21 3569.79 3542.67 3537.91 3509.78 3542.67 3513.21 3509.78 3479.21 3604.49 3575.95 3575.95 3546.43 3575.95 3545.49 3546.43 3514.91 3575.95 3546.43 3545.49 3514.91 3546.43 3514.91 3514.91 3482.23 3545.49 3513.21 3514.91 3481.48 3513.21 3479.21 3481.48 3446.25 3514.91 3481.48 3482.23 3447.56 3481.48 3446.25 3447.56 3410.99 3545.49 3514.91 3513.21 3481.48 3514.91 3482.23 3481.48 3447.56 3513.21 3481.48 3479.21 3446.25 3481.48 3447.56 3446.25 3410.99 3482.23 3447.56 3447.56 3411.53 3447.56 3410.99 3411.53 3373.51 3447.56 3411.53 3410.99 3373.51 3411.53 3373.51 3373.51 3333.93 3674.41 3645.97 3673.03 3644.54 3645.97 3616.4 3644.54 3614.92 3673.03 3644.54 3668.87 3640.24 3644.54 3614.92 3640.24 3610.47 3616.4 3585.79 3614.92 3584.26 3585.79 3554.26 3584.26 3552.67 3614.92 3584.26 3610.47 3579.66 3584.26 3552.67 3579.66 3547.91 3668.87 3640.24 3661.96 3633.09 3640.24 3610.47 3633.09 3603.07 3661.96 3633.09 3652.3 3623.09 3633.09 3603.07 3623.09 3592.72 3610.47 3579.66 3603.07 3571.99 3579.66 3547.91 3571.99 3539.97 3603.07 3571.99 3592.72 3561.28 3571.99 3539.97 3561.28 3528.88 3554.26 3521.9 3552.67 3520.26 3521.9 3488.82 3520.26 3487.13 3552.67 3520.26 3547.91 3515.33 3520.26 3487.13 3515.33 3482.03 3488.82 3455.15 3487.13 3453.39 3455.15 3420.99 3453.39 3419.17 3487.13 3453.39 3482.03 3448.13 3453.39 3419.17 3448.13 3413.74 3547.91 3515.33 3539.97 3507.12 3515.33 3482.03 3507.12 3473.54 3539.97 3507.12 3528.88 3495.64 3507.12 3473.54 3495.64 3461.66 3482.03 3448.13 3473.54 3439.35 3448.13 3413.74 3439.35 3404.67 3473.54 3439.35 3461.66 3427.07 3439.35 3404.67 3427.07 3391.99 3652.3 3623.09 3639.9 3610.26 3623.09 3592.72 3610.26 3579.43 3639.9 3610.26 3624.8 3594.62 3610.26 3579.43 3594.62 3563.23 3592.72 3561.28 3579.43 3547.52 3561.28 3528.88 3547.52 3514.63 3579.43 3547.52 3563.23 3530.73 3547.52 3514.63 3530.73 3497.24 3624.8 3594.62 3607.01 3576.2 3594.62 3563.23 3576.2 3544.14 3607.01 3576.2 3586.57 3555.02 3576.2 3544.14 3555.02 3522.18 3563.23 3530.73 3544.14 3510.95 3530.73 3497.24 3510.95 3476.74 3544.14 3510.95 3522.18 3488.18 3510.95 3476.74 3488.18 3453.13 3528.88 3495.64 3514.63 3480.89 3495.64 3461.66 3480.89 3446.4 3514.63 3480.89 3497.24 3462.88 3480.89 3446.4 3462.88 3427.76 3461.66 3427.07 3446.4 3411.29 3427.07 3391.99 3411.29 3375.67 3446.4 3411.29 3427.76 3392 3411.29 3375.67 3392 3355.74 3497.24 3462.88 3476.74 3441.63 3462.88 3427.76 3441.63 3405.75 3476.74 3441.63 3453.13 3417.15 3441.63 3405.75 3417.15 3380.38 3427.76 3392 3405.75 3369.22 3392 3355.74 3369.22 3332.18 3405.75 3369.22 3380.38 3342.96 3369.22 3332.18 3342.96 3305.01 3420.99 3386.45 3419.17 3384.58 3386.45 3351.65 3384.58 3349.72 3419.17 3384.58 3413.74 3378.97 3384.58 3349.72 3378.97 3343.94 3351.65 3316.7 3349.72 3314.72 3316.7 3281.72 3314.72 3279.68 3349.72 3314.72 3343.94 3308.77 3314.72 3279.68 3308.77 3273.57 3413.74 3378.97 3404.67 3369.62 3378.97 3343.94 3369.62 3334.3 3404.67 3369.62 3391.99 3356.52 3369.62 3334.3 3356.52 3320.81 3343.94 3308.77 3334.3 3298.85 3308.77 3273.57 3298.85 3263.37 3334.3 3298.85 3320.81 3284.95 3298.85 3263.37 3284.95 3249.08 3281.72 3246.81 3279.68 3244.72 3246.81 3212.08 3244.72 3209.94 3279.68 3244.72 3273.57 3238.44 3244.72 3209.94 3238.44 3203.51 3212.08 3177.64 3209.94 3175.45 3177.64 3143.58 3175.45 3141.34 3209.94 3175.45 3203.51 3168.87 3175.45 3141.34 3168.87 3134.62 3273.57 3238.44 3263.37 3227.98 3238.44 3203.51 3227.98 3192.78 3263.37 3227.98 3249.08 3213.31 3227.98 3192.78 3213.31 3177.75 3203.51 3168.87 3192.78 3157.89 3168.87 3134.62 3157.89 3123.41 3192.78 3157.89 3177.75 3142.51 3157.89 3123.41 3142.51 3107.69 3391.99 3356.52 3375.67 3339.69 3356.52 3320.81 3339.69 3303.45 3375.67 3339.69 3355.74 3319.1 3339.69 3303.45 3319.1 3282.21 3320.81 3284.95 3303.45 3267.08 3284.95 3249.08 3267.08 3230.7 3303.45 3267.08 3282.21 3245.21 3267.08 3230.7 3245.21 3208.2 3355.74 3319.1 3332.18 3294.77 3319.1 3282.21 3294.77 3257.1 3332.18 3294.77 3305.01 3266.68 3294.77 3257.1 3266.68 3228.1 3282.21 3245.21 3257.1 3219.33 3245.21 3208.2 3219.33 3181.57 3257.1 3219.33 3228.1 3189.43 3219.33 3181.57 3189.43 3150.79 3249.08 3213.31 3230.7 3194.43 3213.31 3177.75 3194.43 3158.4 3230.7 3194.43 3208.2 3171.33 3194.43 3158.4 3171.33 3134.7 3177.75 3142.51 3158.4 3122.7 3142.51 3107.69 3122.7 3087.45 3158.4 3122.7 3134.7 3098.44 3122.7 3087.45 3098.44 3062.66 3208.2 3171.33 3181.57 3143.97 3171.33 3134.7 3143.97 3106.64 3181.57 3143.97 3150.79 3112.33 3143.97 3106.64 3112.33 3074.18 3134.7 3098.44 3106.64 3069.71 3098.44 3062.66 3069.71 3033.29 3106.64 3069.71 3074.18 3036.46 3069.71 3033.29 3036.46 2999.29 3586.57 3555.02 3563.52 3531.12 3555.02 3522.18 3531.12 3497.39 3563.52 3531.12 3537.91 3504.55 3531.12 3497.39 3504.55 3469.81 3522.18 3488.18 3497.39 3462.46 3488.18 3453.13 3462.46 3426.44 3497.39 3462.46 3469.81 3433.82 3462.46 3426.44 3433.82 3396.71 3537.91 3504.55 3509.78 3475.35 3504.55 3469.81 3475.35 3439.48 3509.78 3475.35 3479.21 3443.58 3475.35 3439.48 3443.58 3406.47 3469.81 3433.82 3439.48 3402.31 3433.82 3396.71 3402.31 3363.97 3439.48 3402.31 3406.47 3367.98 3402.31 3363.97 3367.98 3328.27 3453.13 3417.15 3426.44 3389.47 3417.15 3380.38 3389.47 3351.68 3426.44 3389.47 3396.71 3358.61 3389.47 3351.68 3358.61 3319.66 3380.38 3342.96 3351.68 3313.22 3342.96 3305.01 3313.22 3274.22 3351.68 3313.22 3319.66 3280.01 3313.22 3274.22 3280.01 3239.81 3396.71 3358.61 3363.97 3324.6 3358.61 3319.66 3324.6 3284.34 3363.97 3324.6 3328.27 3287.47 3324.6 3284.34 3287.47 3245.75 3319.66 3280.01 3284.34 3243.35 3280.01 3239.81 3243.35 3201.8 3284.34 3243.35 3245.75 3203.26 3243.35 3201.8 3203.26 3160.19 3479.21 3443.58 3446.25 3409.32 3443.58 3406.47 3409.32 3370.82 3446.25 3409.32 3410.99 3372.63 3409.32 3370.82 3372.63 3332.62 3406.47 3367.98 3370.82 3330.88 3367.98 3328.27 3330.88 3289.65 3370.82 3330.88 3332.62 3291.08 3330.88 3289.65 3291.08 3248.18 3410.99 3372.63 3373.51 3333.61 3372.63 3332.62 3333.61 3291.94 3373.51 3333.61 3333.93 3292.34 3333.61 3291.94 3292.34 3248.89 3332.62 3291.08 3291.94 3248.66 3291.08 3248.18 3248.66 3203.92 3291.94 3248.66 3248.89 3203.71 3248.66 3203.92 3203.71 3156.96 3328.27 3287.47 3289.65 3247.27 3287.47 3245.75 3247.27 3203.92 3289.65 3247.27 3248.18 3204.05 3247.27 3203.92 3204.05 3158.9 3245.75 3203.26 3203.92 3159.76 3203.26 3160.19 3159.76 3114.99 3203.92 3159.76 3158.9 3112.88 3159.76 3114.99 3112.88 3066.22 3248.18 3204.05 3203.92 3157.88 3204.05 3158.9 3157.88 3110.73 3203.92 3157.88 3156.96 3108.82 3157.88 3110.73 3108.82 3059.48 3158.9 3112.88 3110.73 3062.67 3112.88 3066.22 3062.67 3013.9 3110.73 3062.67 3059.48 3009.15 3062.67 3013.9 3009.15 2958.06 3305.01 3266.68 3274.22 3234.83 3266.68 3228.1 3234.83 3195.2 3274.22 3234.83 3239.81 3199.22 3234.83 3195.2 3199.22 3158.39 3228.1 3189.43 3195.2 3155.49 3189.43 3150.79 3155.49 3115.84 3195.2 3155.49 3158.39 3117.49 3155.49 3115.84 3117.49 3076.67 3239.81 3199.22 3201.8 3159.84 3199.22 3158.39 3159.84 3117.66 3201.8 3159.84 3160.19 3116.7 3159.84 3117.66 3116.7 3072.98 3158.39 3117.49 3117.66 3075.41 3117.49 3076.67 3075.41 3033.27 3117.66 3075.41 3072.98 3029.22 3075.41 3033.27 3029.22 2985.6 3150.79 3112.33 3115.84 3076.38 3112.33 3074.18 3076.38 3037.28 3115.84 3076.38 3076.67 3036.09 3076.38 3037.28 3036.09 2995.9 3074.18 3036.46 3037.28 2998.65 3036.46 2999.29 2998.65 2960.63 3037.28 2998.65 2995.9 2956.23 2998.65 2960.63 2956.23 2917.23 3076.67 3036.09 3033.27 2991.41 3036.09 2995.9 2991.41 2949.98 3033.27 2991.41 2985.6 2942.29 2991.41 2949.98 2942.29 2899.48 2995.9 2956.23 2949.98 2909.15 2956.23 2917.23 2909.15 2869.05 2949.98 2909.15 2899.48 2857.33 2909.15 2869.05 2857.33 2815.99 3160.19 3116.7 3114.99 3069.79 3116.7 3072.98 3069.79 3024.36 3114.99 3069.79 3066.22 3019.11 3069.79 3024.36 3019.11 2971.76 3072.98 3029.22 3024.36 2978.89 3029.22 2985.6 2978.89 2933.6 3024.36 2978.89 2971.76 2924.39 2978.89 2933.6 2924.39 2877.23 3066.22 3019.11 3013.9 2964.66 3019.11 2971.76 2964.66 2915.18 3013.9 2964.66 2958.06 2906.46 2964.66 2915.18 2906.46 2854.6 2971.76 2924.39 2915.18 2865.69 2924.39 2877.23 2865.69 2816.44 2915.18 2865.69 2854.6 2802.74 2865.69 2816.44 2802.74 2751.17 2985.6 2942.29 2933.6 2888.68 2942.29 2899.48 2888.68 2844.31 2933.6 2888.68 2877.23 2830.5 2888.68 2844.31 2830.5 2784.39 2899.48 2857.33 2844.31 2800.68 2857.33 2815.99 2800.68 2757.97 2844.31 2800.68 2784.39 2739.12 2800.68 2757.97 2739.12 2694.88 2877.23 2830.5 2816.44 2767.68 2830.5 2784.39 2767.68 2719.64 2816.44 2767.68 2751.17 2700.15 2767.68 2719.64 2700.15 2649.94 2784.39 2739.12 2719.64 2672.54 2739.12 2694.88 2672.54 2626.59 2719.64 2672.54 2649.94 2600.8 2672.54 2626.59 2600.8 2552.96 3674.41 3673.03 3645.97 3644.54 3673.03 3668.87 3644.54 3640.24 3645.97 3644.54 3616.4 3614.92 3644.54 3640.24 3614.92 3610.47 3668.87 3661.96 3640.24 3633.09 3661.96 3652.3 3633.09 3623.09 3640.24 3633.09 3610.47 3603.07 3633.09 3623.09 3603.07 3592.72 3616.4 3614.92 3585.79 3584.26 3614.92 3610.47 3584.26 3579.66 3585.79 3584.26 3554.26 3552.67 3584.26 3579.66 3552.67 3547.91 3610.47 3603.07 3579.66 3571.99 3603.07 3592.72 3571.99 3561.28 3579.66 3571.99 3547.91 3539.97 3571.99 3561.28 3539.97 3528.88 3652.3 3639.9 3623.09 3610.26 3639.9 3624.8 3610.26 3594.62 3623.09 3610.26 3592.72 3579.43 3610.26 3594.62 3579.43 3563.23 3624.8 3607.01 3594.62 3576.2 3607.01 3586.57 3576.2 3555.02 3594.62 3576.2 3563.23 3544.14 3576.2 3555.02 3544.14 3522.18 3592.72 3579.43 3561.28 3547.52 3579.43 3563.23 3547.52 3530.73 3561.28 3547.52 3528.88 3514.63 3547.52 3530.73 3514.63 3497.24 3563.23 3544.14 3530.73 3510.95 3544.14 3522.18 3510.95 3488.18 3530.73 3510.95 3497.24 3476.74 3510.95 3488.18 3476.74 3453.13 3554.26 3552.67 3521.9 3520.26 3552.67 3547.91 3520.26 3515.33 3521.9 3520.26 3488.82 3487.13 3520.26 3515.33 3487.13 3482.03 3547.91 3539.97 3515.33 3507.12 3539.97 3528.88 3507.12 3495.64 3515.33 3507.12 3482.03 3473.54 3507.12 3495.64 3473.54 3461.66 3488.82 3487.13 3455.15 3453.39 3487.13 3482.03 3453.39 3448.13 3455.15 3453.39 3420.99 3419.17 3453.39 3448.13 3419.17 3413.74 3482.03 3473.54 3448.13 3439.35 3473.54 3461.66 3439.35 3427.07 3448.13 3439.35 3413.74 3404.67 3439.35 3427.07 3404.67 3391.99 3528.88 3514.63 3495.64 3480.89 3514.63 3497.24 3480.89 3462.88 3495.64 3480.89 3461.66 3446.4 3480.89 3462.88 3446.4 3427.76 3497.24 3476.74 3462.88 3441.63 3476.74 3453.13 3441.63 3417.15 3462.88 3441.63 3427.76 3405.75 3441.63 3417.15 3405.75 3380.38 3461.66 3446.4 3427.07 3411.29 3446.4 3427.76 3411.29 3392 3427.07 3411.29 3391.99 3375.67 3411.29 3392 3375.67 3355.74 3427.76 3405.75 3392 3369.22 3405.75 3380.38 3369.22 3342.96 3392 3369.22 3355.74 3332.18 3369.22 3342.96 3332.18 3305.01 3586.57 3563.52 3555.02 3531.12 3563.52 3537.91 3531.12 3504.55 3555.02 3531.12 3522.18 3497.39 3531.12 3504.55 3497.39 3469.81 3537.91 3509.78 3504.55 3475.35 3509.78 3479.21 3475.35 3443.58 3504.55 3475.35 3469.81 3439.48 3475.35 3443.58 3439.48 3406.47 3522.18 3497.39 3488.18 3462.46 3497.39 3469.81 3462.46 3433.82 3488.18 3462.46 3453.13 3426.44 3462.46 3433.82 3426.44 3396.71 3469.81 3439.48 3433.82 3402.31 3439.48 3406.47 3402.31 3367.98 3433.82 3402.31 3396.71 3363.97 3402.31 3367.98 3363.97 3328.27 3479.21 3446.25 3443.58 3409.32 3446.25 3410.99 3409.32 3372.63 3443.58 3409.32 3406.47 3370.82 3409.32 3372.63 3370.82 3332.62 3410.99 3373.51 3372.63 3333.61 3373.51 3333.93 3333.61 3292.34 3372.63 3333.61 3332.62 3291.94 3333.61 3292.34 3291.94 3248.89 3406.47 3370.82 3367.98 3330.88 3370.82 3332.62 3330.88 3291.08 3367.98 3330.88 3328.27 3289.65 3330.88 3291.08 3289.65 3248.18 3332.62 3291.94 3291.08 3248.66 3291.94 3248.89 3248.66 3203.71 3291.08 3248.66 3248.18 3203.92 3248.66 3203.71 3203.92 3156.96 3453.13 3426.44 3417.15 3389.47 3426.44 3396.71 3389.47 3358.61 3417.15 3389.47 3380.38 3351.68 3389.47 3358.61 3351.68 3319.66 3396.71 3363.97 3358.61 3324.6 3363.97 3328.27 3324.6 3287.47 3358.61 3324.6 3319.66 3284.34 3324.6 3287.47 3284.34 3245.75 3380.38 3351.68 3342.96 3313.22 3351.68 3319.66 3313.22 3280.01 3342.96 3313.22 3305.01 3274.22 3313.22 3280.01 3274.22 3239.81 3319.66 3284.34 3280.01 3243.35 3284.34 3245.75 3243.35 3203.26 3280.01 3243.35 3239.81 3201.8 3243.35 3203.26 3201.8 3160.19 3328.27 3289.65 3287.47 3247.27 3289.65 3248.18 3247.27 3204.05 3287.47 3247.27 3245.75 3203.92 3247.27 3204.05 3203.92 3158.9 3248.18 3203.92 3204.05 3157.88 3203.92 3156.96 3157.88 3108.82 3204.05 3157.88 3158.9 3110.73 3157.88 3108.82 3110.7