# vtk DataFile Version 3.0
#This file was generated by the deal.II library on 2016/3/22 at 17:45:02
ASCII
DATASET UNSTRUCTURED_GRID

POINTS 5120 double
-0.707107 -0.707107 0
-0.634393 -0.77301 0
-0.681218 -0.681218 0
-0.607969 -0.738778 0
-0.634393 -0.77301 0
-0.55557 -0.83147 0
-0.607969 -0.738778 0
-0.531665 -0.792615 0
-0.681218 -0.681218 0
-0.607969 -0.738778 0
-0.65533 -0.65533 0
-0.581544 -0.704546 0
-0.607969 -0.738778 0
-0.531665 -0.792615 0
-0.581544 -0.704546 0
-0.507759 -0.753761 0
-0.55557 -0.83147 0
-0.471397 -0.881921 0
-0.531665 -0.792615 0
-0.450016 -0.838455 0
-0.471397 -0.881921 0
-0.382683 -0.92388 0
-0.450016 -0.838455 0
-0.366098 -0.880048 0
-0.531665 -0.792615 0
-0.450016 -0.838455 0
-0.507759 -0.753761 0
-0.428636 -0.794988 0
-0.450016 -0.838455 0
-0.366098 -0.880048 0
-0.428636 -0.794988 0
-0.349513 -0.836215 0
-0.65533 -0.65533 0
-0.581544 -0.704546 0
-0.629442 -0.629442 0
-0.556647 -0.672174 0
-0.581544 -0.704546 0
-0.507759 -0.753761 0
-0.556647 -0.672174 0
-0.483853 -0.714907 0
-0.629442 -0.629442 0
-0.556647 -0.672174 0
-0.603553 -0.603553 0
-0.53175 -0.639803 0
-0.556647 -0.672174 0
-0.483853 -0.714907 0
-0.53175 -0.639803 0
-0.459948 -0.676052 0
-0.507759 -0.753761 0
-0.428636 -0.794988 0
-0.483853 -0.714907 0
-0.40839 -0.753645 0
-0.428636 -0.794988 0
-0.349513 -0.836215 0
-0.40839 -0.753645 0
-0.332927 -0.792383 0
-0.483853 -0.714907 0
-0.40839 -0.753645 0
-0.459948 -0.676052 0
-0.388145 -0.712302 0
-0.40839 -0.753645 0
-0.332927 -0.792383 0
-0.388145 -0.712302 0
-0.316342 -0.748551 0
-0.382683 -0.92388 0
-0.290285 -0.95694 0
-0.366098 -0.880048 0
-0.276678 -0.908358 0
-0.290285 -0.95694 0
-0.19509 -0.980785 0
-0.276678 -0.908358 0
-0.18586 -0.932061 0
-0.366098 -0.880048 0
-0.276678 -0.908358 0
-0.349513 -0.836215 0
-0.263072 -0.859776 0
-0.276678 -0.908358 0
-0.18586 -0.932061 0
-0.263072 -0.859776 0
-0.176631 -0.883336 0
-0.19509 -0.980785 0
-0.0980171 -0.995185 0
-0.18586 -0.932061 0
-0.0931662 -0.946329 0
-0.0980171 -0.995185 0
-1.83697e-16 -1 0
-0.0931662 -0.946329 0
-1.72216e-16 -0.955806 0
-0.18586 -0.932061 0
-0.0931662 -0.946329 0
-0.176631 -0.883336 0
-0.0883153 -0.897474 0
-0.0931662 -0.946329 0
-1.72216e-16 -0.955806 0
-0.0883153 -0.897474 0
-1.60735e-16 -0.911612 0
-0.349513 -0.836215 0
-0.263072 -0.859776 0
-0.332927 -0.792383 0
-0.250164 -0.813498 0
-0.263072 -0.859776 0
-0.176631 -0.883336 0
-0.250164 -0.813498 0
-0.167401 -0.834612 0
-0.332927 -0.792383 0
-0.250164 -0.813498 0
-0.316342 -0.748551 0
-0.237256 -0.767219 0
-0.250164 -0.813498 0
-0.167401 -0.834612 0
-0.237256 -0.767219 0
-0.158171 -0.785887 0
-0.176631 -0.883336 0
-0.0883153 -0.897474 0
-0.167401 -0.834612 0
-0.0837004 -0.851015 0
-0.0883153 -0.897474 0
-1.60735e-16 -0.911612 0
-0.0837004 -0.851015 0
-1.49254e-16 -0.867417 0
-0.167401 -0.834612 0
-0.0837004 -0.851015 0
-0.158171 -0.785887 0
-0.0790854 -0.804555 0
-0.0837004 -0.851015 0
-1.49254e-16 -0.867417 0
-0.0790854 -0.804555 0
-1.37773e-16 -0.823223 0
-0.603553 -0.603553 0
-0.53175 -0.639803 0
-0.577665 -0.577665 0
-0.508188 -0.609429 0
-0.53175 -0.639803 0
-0.459948 -0.676052 0
-0.508188 -0.609429 0
-0.438711 -0.641192 0
-0.577665 -0.577665 0
-0.508188 -0.609429 0
-0.551777 -0.551777 0
-0.484625 -0.579054 0
-0.508188 -0.609429 0
-0.438711 -0.641192 0
-0.484625 -0.579054 0
-0.417474 -0.606332 0
-0.459948 -0.676052 0
-0.388145 -0.712302 0
-0.438711 -0.641192 0
-0.369233 -0.672956 0
-0.388145 -0.712302 0
-0.316342 -0.748551 0
-0.369233 -0.672956 0
-0.299756 -0.704719 0
-0.438711 -0.641192 0
-0.369233 -0.672956 0
-0.417474 -0.606332 0
-0.350322 -0.63361 0
-0.369233 -0.672956 0
-0.299756 -0.704719 0
-0.350322 -0.63361 0
-0.283171 -0.660887 0
-0.551777 -0.551777 0
-0.484625 -0.579054 0
-0.525888 -0.525888 0
-0.461063 -0.54868 0
-0.484625 -0.579054 0
-0.417474 -0.606332 0
-0.461063 -0.54868 0
-0.396237 -0.571472 0
-0.525888 -0.525888 0
-0.461063 -0.54868 0
-0.5 -0.5 0
-0.4375 -0.518306 0
-0.461063 -0.54868 0
-0.396237 -0.571472 0
-0.4375 -0.518306 0
-0.375 -0.536612 0
-0.417474 -0.606332 0
-0.350322 -0.63361 0
-0.396237 -0.571472 0
-0.331411 -0.594264 0
-0.350322 -0.63361 0
-0.283171 -0.660887 0
-0.331411 -0.594264 0
-0.266585 -0.617055 0
-0.396237 -0.571472 0
-0.331411 -0.594264 0
-0.375 -0.536612 0
-0.3125 -0.554917 0
-0.331411 -0.594264 0
-0.266585 -0.617055 0
-0.3125 -0.554917 0
-0.25 -0.573223 0
-0.316342 -0.748551 0
-0.237256 -0.767219 0
-0.299756 -0.704719 0
-0.224817 -0.723297 0
-0.237256 -0.767219 0
-0.158171 -0.785887 0
-0.224817 -0.723297 0
-0.149878 -0.741874 0
-0.299756 -0.704719 0
-0.224817 -0.723297 0
-0.283171 -0.660887 0
-0.212378 -0.679374 0
-0.224817 -0.723297 0
-0.149878 -0.741874 0
-0.212378 -0.679374 0
-0.141585 -0.697861 0
-0.158171 -0.785887 0
-0.0790854 -0.804555 0
-0.149878 -0.741874 0
-0.0749391 -0.760452 0
-0.0790854 -0.804555 0
-1.37773e-16 -0.823223 0
-0.0749391 -0.760452 0
-1.26292e-16 -0.779029 0
-0.149878 -0.741874 0
-0.0749391 -0.760452 0
-0.141585 -0.697861 0
-0.0707927 -0.716348 0
-0.0749391 -0.760452 0
-1.26292e-16 -0.779029 0
-0.0707927 -0.716348 0
-1.14811e-16 -0.734835 0
-0.283171 -0.660887 0
-0.212378 -0.679374 0
-0.266585 -0.617055 0
-0.199939 -0.635452 0
-0.212378 -0.679374 0
-0.141585 -0.697861 0
-0.199939 -0.635452 0
-0.133293 -0.653848 0
-0.266585 -0.617055 0
-0.199939 -0.635452 0
-0.25 -0.573223 0
-0.1875 -0.591529 0
-0.199939 -0.635452 0
-0.133293 -0.653848 0
-0.1875 -0.591529 0
-0.125 -0.609835 0
-0.141585 -0.697861 0
-0.0707927 -0.716348 0
-0.133293 -0.653848 0
-0.0666464 -0.672244 0
-0.0707927 -0.716348 0
-1.14811e-16 -0.734835 0
-0.0666464 -0.672244 0
-1.0333e-16 -0.690641 0
-0.133293 -0.653848 0
-0.0666464 -0.672244 0
-0.125 -0.609835 0
-0.0625 -0.628141 0
-0.0666464 -0.672244 0
-1.0333e-16 -0.690641 0
-0.0625 -0.628141 0
-9.18485e-17 -0.646447 0
-1.83697e-16 -1 0
0.0980171 -0.995185 0
-1.72216e-16 -0.955806 0
0.0931662 -0.946329 0
0.0980171 -0.995185 0
0.19509 -0.980785 0
0.0931662 -0.946329 0
0.18586 -0.932061 0
-1.72216e-16 -0.955806 0
0.0931662 -0.946329 0
-1.60735e-16 -0.911612 0
0.0883153 -0.897474 0
0.0931662 -0.946329 0
0.18586 -0.932061 0
0.0883153 -0.897474 0
0.176631 -0.883336 0
0.19509 -0.980785 0
0.290285 -0.95694 0
0.18586 -0.932061 0
0.276678 -0.908358 0
0.290285 -0.95694 0
0.382683 -0.92388 0
0.276678 -0.908358 0
0.366098 -0.880048 0
0.18586 -0.932061 0
0.276678 -0.908358 0
0.176631 -0.883336 0
0.263072 -0.859776 0
0.276678 -0.908358 0
0.366098 -0.880048 0
0.263072 -0.859776 0
0.349513 -0.836215 0
-1.60735e-16 -0.911612 0
0.0883153 -0.897474 0
-1.49254e-16 -0.867417 0
0.0837004 -0.851015 0
0.0883153 -0.897474 0
0.176631 -0.883336 0
0.0837004 -0.851015 0
0.167401 -0.834612 0
-1.49254e-16 -0.867417 0
0.0837004 -0.851015 0
-1.37773e-16 -0.823223 0
0.0790854 -0.804555 0
0.0837004 -0.851015 0
0.167401 -0.834612 0
0.0790854 -0.804555 0
0.158171 -0.785887 0
0.176631 -0.883336 0
0.263072 -0.859776 0
0.167401 -0.834612 0
0.250164 -0.813498 0
0.263072 -0.859776 0
0.349513 -0.836215 0
0.250164 -0.813498 0
0.332927 -0.792383 0
0.167401 -0.834612 0
0.250164 -0.813498 0
0.158171 -0.785887 0
0.237256 -0.767219 0
0.250164 -0.813498 0
0.332927 -0.792383 0
0.237256 -0.767219 0
0.316342 -0.748551 0
0.382683 -0.92388 0
0.471397 -0.881921 0
0.366098 -0.880048 0
0.450016 -0.838455 0
0.471397 -0.881921 0
0.55557 -0.83147 0
0.450016 -0.838455 0
0.531665 -0.792615 0
0.366098 -0.880048 0
0.450016 -0.838455 0
0.349513 -0.836215 0
0.428636 -0.794988 0
0.450016 -0.838455 0
0.531665 -0.792615 0
0.428636 -0.794988 0
0.507759 -0.753761 0
0.55557 -0.83147 0
0.634393 -0.77301 0
0.531665 -0.792615 0
0.607969 -0.738778 0
0.634393 -0.77301 0
0.707107 -0.707107 0
0.607969 -0.738778 0
0.681218 -0.681218 0
0.531665 -0.792615 0
0.607969 -0.738778 0
0.507759 -0.753761 0
0.581544 -0.704546 0
0.607969 -0.738778 0
0.681218 -0.681218 0
0.581544 -0.704546 0
0.65533 -0.65533 0
0.349513 -0.836215 0
0.428636 -0.794988 0
0.332927 -0.792383 0
0.40839 -0.753645 0
0.428636 -0.794988 0
0.507759 -0.753761 0
0.40839 -0.753645 0
0.483853 -0.714907 0
0.332927 -0.792383 0
0.40839 -0.753645 0
0.316342 -0.748551 0
0.388145 -0.712302 0
0.40839 -0.753645 0
0.483853 -0.714907 0
0.388145 -0.712302 0
0.459948 -0.676052 0
0.507759 -0.753761 0
0.581544 -0.704546 0
0.483853 -0.714907 0
0.556647 -0.672174 0
0.581544 -0.704546 0
0.65533 -0.65533 0
0.556647 -0.672174 0
0.629442 -0.629442 0
0.483853 -0.714907 0
0.556647 -0.672174 0
0.459948 -0.676052 0
0.53175 -0.639803 0
0.556647 -0.672174 0
0.629442 -0.629442 0
0.53175 -0.639803 0
0.603553 -0.603553 0
-1.37773e-16 -0.823223 0
0.0790854 -0.804555 0
-1.26292e-16 -0.779029 0
0.0749391 -0.760452 0
0.0790854 -0.804555 0
0.158171 -0.785887 0
0.0749391 -0.760452 0
0.149878 -0.741874 0
-1.26292e-16 -0.779029 0
0.0749391 -0.760452 0
-1.14811e-16 -0.734835 0
0.0707927 -0.716348 0
0.0749391 -0.760452 0
0.149878 -0.741874 0
0.0707927 -0.716348 0
0.141585 -0.697861 0
0.158171 -0.785887 0
0.237256 -0.767219 0
0.149878 -0.741874 0
0.224817 -0.723297 0
0.237256 -0.767219 0
0.316342 -0.748551 0
0.224817 -0.723297 0
0.299756 -0.704719 0
0.149878 -0.741874 0
0.224817 -0.723297 0
0.141585 -0.697861 0
0.212378 -0.679374 0
0.224817 -0.723297 0
0.299756 -0.704719 0
0.212378 -0.679374 0
0.283171 -0.660887 0
-1.14811e-16 -0.734835 0
0.0707927 -0.716348 0
-1.0333e-16 -0.690641 0
0.0666464 -0.672244 0
0.0707927 -0.716348 0
0.141585 -0.697861 0
0.0666464 -0.672244 0
0.133293 -0.653848 0
-1.0333e-16 -0.690641 0
0.0666464 -0.672244 0
-9.18485e-17 -0.646447 0
0.0625 -0.628141 0
0.0666464 -0.672244 0
0.133293 -0.653848 0
0.0625 -0.628141 0
0.125 -0.609835 0
0.141585 -0.697861 0
0.212378 -0.679374 0
0.133293 -0.653848 0
0.199939 -0.635452 0
0.212378 -0.679374 0
0.283171 -0.660887 0
0.199939 -0.635452 0
0.266585 -0.617055 0
0.133293 -0.653848 0
0.199939 -0.635452 0
0.125 -0.609835 0
0.1875 -0.591529 0
0.199939 -0.635452 0
0.266585 -0.617055 0
0.1875 -0.591529 0
0.25 -0.573223 0
0.316342 -0.748551 0
0.388145 -0.712302 0
0.299756 -0.704719 0
0.369233 -0.672956 0
0.388145 -0.712302 0
0.459948 -0.676052 0
0.369233 -0.672956 0
[...]
POINT_DATA 5120
SCALARS solution double 1
LOOKUP_TABLE default
0 0 -0.0369756 -0.0290004 0 0 -0.0290004 -0.0128488 -0.0369756 -0.0290004 -0.0689867 -0.0536395 -0.0290004 -0.0128488 -0.0536395 -0.0241062 0 0 -0.0128488 0.00629308 0 0 0.00629308 0.024881 -0.0128488 0.00629308 -0.0241062 0.0106949 0.00629308 0.024881 0.0106949 0.0446637 -0.0689867 -0.0536395 -0.0955529 -0.0726583 -0.0536395 -0.0241062 -0.0726583 -0.0335876 -0.0955529 -0.0726583 -0.116903 -0.087729 -0.0726583 -0.0335876 -0.087729 -0.0413305 -0.0241062 0.0106949 -0.0335876 0.0131625 0.0106949 0.0446637 0.0131625 0.059315 -0.0335876 0.0131625 -0.0413305 0.0141672 0.0131625 0.059315 0.0141672 0.0692476 0 0 0.024881 0.0444295 0 0 0.0444295 0.0575264 0.024881 0.0444295 0.0446637 0.0796314 0.0444295 0.0575264 0.0796314 0.103706 0 0 0.0575264 0.0656721 0 0 0.0656721 0.0623217 0.0575264 0.0656721 0.103706 0.118677 0.0656721 0.0623217 0.118677 0.114047 0.0446637 0.0796314 0.059315 0.104523 0.0796314 0.103706 0.104523 0.138411 0.059315 0.104523 0.0692476 0.121671 0.104523 0.138411 0.121671 0.162514 0.103706 0.118677 0.138411 0.157131 0.118677 0.114047 0.157131 0.154735 0.138411 0.157131 0.162514 0.184757 0.157131 0.154735 0.184757 0.185062 -0.116903 -0.087729 -0.133345 -0.0984147 -0.087729 -0.0413305 -0.0984147 -0.0469745 -0.133345 -0.0984147 -0.145212 -0.106002 -0.0984147 -0.0469745 -0.106002 -0.0513609 -0.0413305 0.0141672 -0.0469745 0.0136913 0.0141672 0.0692476 0.0136913 0.0749355 -0.0469745 0.0136913 -0.0513609 0.0122079 0.0136913 0.0749355 0.0122079 0.076883 -0.145212 -0.106002 -0.15286 -0.11073 -0.106002 -0.0513609 -0.11073 -0.0545425 -0.15286 -0.11073 -0.156665 -0.112849 -0.11073 -0.0545425 -0.112849 -0.0565792 -0.0513609 0.0122079 -0.0545425 0.00991923 0.0122079 0.076883 0.00991923 0.0756179 -0.0545425 0.00991923 -0.0565792 0.00702981 0.00991923 0.0756179 0.00702981 0.0716813 0.0692476 0.121671 0.0749355 0.131593 0.121671 0.162514 0.131593 0.175988 0.0749355 0.131593 0.076883 0.135914 0.131593 0.175988 0.135914 0.182439 0.162514 0.184757 0.175988 0.201759 0.184757 0.185062 0.201759 0.205844 0.175988 0.201759 0.182439 0.210719 0.201759 0.205844 0.210719 0.217961 0.076883 0.135914 0.0756179 0.135347 0.135914 0.182439 0.135347 0.18271 0.0756179 0.135347 0.0716813 0.130626 0.135347 0.18271 0.130626 0.177674 0.182439 0.210719 0.18271 0.212557 0.210719 0.217961 0.212557 0.222351 0.18271 0.212557 0.177674 0.208226 0.212557 0.222351 0.208226 0.21999 0 0 0.0623217 0.0656721 0 0 0.0656721 0.0575264 0.0623217 0.0656721 0.114047 0.118677 0.0656721 0.0575264 0.118677 0.103706 0 0 0.0575264 0.0444295 0 0 0.0444295 0.024881 0.0575264 0.0444295 0.103706 0.0796314 0.0444295 0.024881 0.0796314 0.0446637 0.114047 0.118677 0.154735 0.157131 0.118677 0.103706 0.157131 0.138411 0.154735 0.157131 0.185062 0.184757 0.157131 0.138411 0.184757 0.162514 0.103706 0.0796314 0.138411 0.104523 0.0796314 0.0446637 0.104523 0.059315 0.138411 0.104523 0.162514 0.121671 0.104523 0.059315 0.121671 0.0692476 0 0 0.024881 0.00629308 0 0 0.00629308 -0.0128488 0.024881 0.00629308 0.0446637 0.0106949 0.00629308 -0.0128488 0.0106949 -0.0241062 0 0 -0.0128488 -0.0290004 0 0 -0.0290004 -0.0369756 -0.0128488 -0.0290004 -0.0241062 -0.0536395 -0.0290004 -0.0369756 -0.0536395 -0.0689867 0.0446637 0.0106949 0.059315 0.0131625 0.0106949 -0.0241062 0.0131625 -0.0335876 0.059315 0.0131625 0.0692476 0.0141672 0.0131625 -0.0335876 0.0141672 -0.0413305 -0.0241062 -0.0536395 -0.0335876 -0.0726583 -0.0536395 -0.0689867 -0.0726583 -0.0955529 -0.0335876 -0.0726583 -0.0413305 -0.087729 -0.0726583 -0.0955529 -0.087729 -0.116903 0.185062 0.184757 0.205844 0.201759 0.184757 0.162514 0.201759 0.175988 0.205844 0.201759 0.217961 0.210719 0.201759 0.175988 0.210719 0.182439 0.162514 0.121671 0.175988 0.131593 0.121671 0.0692476 0.131593 0.0749355 0.175988 0.131593 0.182439 0.135914 0.131593 0.0749355 0.135914 0.076883 0.217961 0.210719 0.222351 0.212557 0.210719 0.182439 0.212557 0.18271 0.222351 0.212557 0.21999 0.208226 0.212557 0.18271 0.208226 0.177674 0.182439 0.135914 0.18271 0.135347 0.135914 0.076883 0.135347 0.0756179 0.18271 0.135347 0.177674 0.130626 0.135347 0.0756179 0.130626 0.0716813 0.0692476 0.0141672 0.0749355 0.0136913 0.0141672 -0.0413305 0.0136913 -0.0469745 0.0749355 0.0136913 0.076883 0.0122079 0.0136913 -0.0469745 0.0122079 -0.0513609 -0.0413305 -0.087729 -0.0469745 -0.0984147 -0.087729 -0.116903 -0.0984147 -0.133345 -0.0469745 -0.0984147 -0.0513609 -0.106002 -0.0984147 -0.133345 -0.106002 -0.145212 0.076883 0.0122079 0.0756179 0.00991923 0.0122079 -0.0513609 0.00991923 -0.0545425 0.0756179 0.00991923 0.0716813 0.00702981 0.00991923 -0.0545425 0.00702981 -0.0565792 -0.0513609 -0.106002 -0.0545425 -0.11073 -0.106002 -0.145212 -0.11073 -0.15286 -0.0545425 -0.11073 -0.0565792 -0.112849 -0.11073 -0.15286 -0.112849 -0.156665 -0.156665 -0.112849 -0.157015 -0.112142 -0.112849 -0.0565792 -0.112142 -0.0567402 -0.157015 -0.112142 -0.154308 -0.109556 -0.112142 -0.0567402 -0.109556 -0.0560828 -0.0565792 0.00702981 -0.0567402 0.00471367 0.00702981 0.0716813 0.00471367 0.0666996 -0.0567402 0.00471367 -0.0560828 0.00224302 0.00471367 0.0666996 0.00224302 0.0606371 -0.154308 -0.109556 -0.14895 -0.105342 -0.109556 -0.0560828 -0.105342 -0.0546876 -0.14895 -0.105342 -0.141345 -0.0997496 -0.105342 -0.0546876 -0.0997496 -0.0526378 -0.0560828 0.00224302 -0.0546876 -0.000284241 0.00224302 0.0606371 -0.000284241 0.0537753 -0.0546876 -0.000284241 -0.0526378 -0.00277528 -0.000284241 0.0537753 -0.00277528 0.0463887 0.0716813 0.130626 0.0666996 0.123246 0.130626 0.177674 0.123246 0.168787 0.0666996 0.123246 0.0606371 0.113868 0.123246 0.168787 0.113868 0.156976 0.177674 0.208226 0.168787 0.199079 0.208226 0.21999 0.199079 0.211877 0.168787 0.199079 0.156976 0.186083 0.199079 0.211877 0.186083 0.199022 0.0606371 0.113868 0.0537753 0.102961 0.113868 0.156976 0.102961 0.142898 0.0537753 0.102961 0.0463887 0.0909837 0.102961 0.142898 0.0909837 0.127196 0.156976 0.186083 0.142898 0.170075 0.186083 0.199022 0.170075 0.182433 0.142898 0.170075 0.127196 0.151878 0.170075 0.182433 0.151878 0.1631 -0.141345 -0.0997496 -0.1319 -0.0930288 -0.0997496 -0.0526378 -0.0930288 -0.0500174 -0.1319 -0.0930288 -0.121015 -0.0854252 -0.0930288 -0.0500174 -0.0854252 -0.0469107 -0.0526378 -0.00277528 -0.0500174 -0.00514199 -0.00277528 0.0463887 -0.00514199 0.0387421 -0.0500174 -0.00514199 -0.0469107 -0.00730175 -0.00514199 0.0387421 -0.00730175 0.031088 -0.121015 -0.0854252 -0.109079 -0.0771785 -0.0854252 -0.0469107 -0.0771785 -0.0434006 -0.109079 -0.0771785 -0.0964698 -0.0685177 -0.0771785 -0.0434006 -0.0685177 -0.0395669 -0.0469107 -0.00730175 -0.0434006 -0.0091779 -0.00730175 0.031088 -0.0091779 0.0236646 -0.0434006 -0.0091779 -0.0395669 -0.0106987 -0.0091779 0.0236646 -0.0106987 0.0166951 0.0463887 0.0909837 0.0387421 0.0783803 0.0909837 0.127196 0.0783803 0.110492 0.0387421 0.0783803 0.031088 0.0655742 0.0783803 0.110492 0.0655742 0.0933797 0.127196 0.151878 0.110492 0.132288 0.151878 0.1631 0.132288 0.141983 0.110492 0.132288 0.0933797 0.112066 0.132288 0.141983 0.112066 0.120001 0.031088 0.0655742 0.0236646 0.0529652 0.0655742 0.0933797 0.0529652 0.0764196 0.0236646 0.0529652 0.0166951 0.0409267 0.0529652 0.0764196 0.0409267 0.0601322 0.0933797 0.112066 0.0764196 0.0919273 0.112066 0.120001 0.0919273 0.0980181 0.0764196 0.0919273 0.0601322 0.0725366 0.0919273 0.0980181 0.0725366 0.0768328 0.21999 0.208226 0.211877 0.199079 0.208226 0.177674 0.199079 0.168787 0.211877 0.199079 0.199022 0.186083 0.199079 0.168787 0.186083 0.156976 0.177674 0.130626 0.168787 0.123246 0.130626 0.0716813 0.123246 0.0666996 0.168787 0.123246 0.156976 0.113868 0.123246 0.0666996 0.113868 0.0606371 0.199022 0.186083 0.182433 0.170075 0.186083 0.156976 0.170075 0.142898 0.182433 0.170075 0.1631 0.151878 0.170075 0.142898 0.151878 0.127196 0.156976 0.113868 0.142898 0.102961 0.113868 0.0606371 0.102961 0.0537753 0.142898 0.102961 0.127196 0.0909837 0.102961 0.0537753 0.0909837 0.0463887 0.0716813 0.00702981 0.0666996 0.00471367 0.00702981 -0.0565792 0.00471367 -0.0567402 0.0666996 0.00471367 0.0606371 0.00224302 0.00471367 -0.0567402 0.00224302 -0.0560828 -0.0565792 -0.112849 -0.0567402 -0.112142 -0.112849 -0.156665 -0.112142 -0.157015 -0.0567402 -0.112142 -0.0560828 -0.109556 -0.112142 -0.157015 -0.109556 -0.154308 0.0606371 0.00224302 0.0537753 -0.000284241 0.00224302 -0.0560828 -0.000284241 -0.0546876 0.0537753 -0.000284241 0.0463887 -0.00277528 -0.000284241 -0.0546876 -0.00277528 -0.0526378 -0.0560828 -0.109556 -0.0546876 -0.105342 -0.109556 -0.154308 -0.105342 -0.14895 -0.0546876 -0.105342 -0.0526378 -0.0997496 -0.105342 -0.14895 -0.0997496 -0.141345 0.1631 0.151878 0.141983 0.132288 0.151878 0.127196 0.132288 0.110492 0.141983 0.132288 0.120001 0.112066 0.132288 0.110492 0.112066 0.0933797 0.127196 0.0909837 0.110492 0.0783803 0.0909837 0.0463887 0.0783803 0.0387421 0.110492 0.0783803 0.0933797 0.0655742 0.0783803 0.0387421 0.0655742 0.031088 0.120001 0.112066 0.0980181 0.0919273 0.112066 0.0933797 0.0919273 0.0764196 0.0980181 0.0919273 0.0768328 0.0725366 0.0919273 0.0764196 0.0725366 0.0601322 0.0933797 0.0655742 0.0764196 0.0529652 0.0655742 0.031088 0.0529652 0.0236646 0.0764196 0.0529652 0.0601322 0.0409267 0.0529652 0.0236646 0.0409267 0.0166951 0.0463887 -0.00277528 0.0387421 -0.00514199 -0.00277528 -0.0526378 -0.00514199 -0.0500174 0.0387421 -0.00514199 0.031088 -0.00730175 -0.00514199 -0.0500174 -0.00730175 -0.0469107 -0.0526378 -0.0997496 -0.0500174 -0.0930288 -0.0997496 -0.141345 -0.0930288 -0.1319 -0.0500174 -0.0930288 -0.0469107 -0.0854252 -0.0930288 -0.1319 -0.0854252 -0.121015 0.031088 -0.00730175 0.0236646 -0.0091779 -0.00730175 -0.0469107 -0.0091779 -0.0434006 0.0236646 -0.0091779 0.0166951 -0.0106987 -0.0091779 -0.0434006 -0.0106987 -0.0395669 -0.0469107 -0.0854252 -0.0434006 -0.0771785 -0.0854252 -0.121015 -0.0771785 -0.109079 -0.0434006 -0.0771785 -0.0395669 -0.0685177 -0.0771785 -0.109079 -0.0685177 -0.0964698 0 -0.0369756 0 -0.0537272 -0.0369756 -0.0689867 -0.0537272 -0.0983333 0 -0.0537272 0 -0.0628228 -0.0537272 -0.0983333 -0.0628228 -0.114415 -0.0689867 -0.0955529 -0.0983333 -0.131683 -0.0955529 -0.116903 -0.131683 -0.157024 -0.0983333 -0.131683 -0.114415 -0.154412 -0.131683 -0.157024 -0.154412 -0.183581 0 -0.0628228 0 -0.067459 -0.0628228 -0.114415 -0.067459 -0.12218 0 -0.067459 0 -0.0608539 -0.067459 -0.12218 -0.0608539 -0.11083 -0.114415 -0.154412 -0.12218 -0.162118 -0.154412 -0.183581 -0.162118 -0.191105 -0.12218 -0.162118 -0.11083 -0.14959 -0.162118 -0.191105 -0.14959 -0.177865 -0.116903 -0.133345 -0.157024 -0.174147 -0.133345 -0.145212 -0.174147 -0.185236 -0.157024 -0.174147 -0.183581 -0.201202 -0.174147 -0.185236 -0.201202 -0.211569 -0.145212 -0.15286 -0.185236 -0.190846 -0.15286 -0.156665 -0.190846 -0.191557 -0.185236 -0.190846 -0.211569 -0.215421 -0.190846 -0.191557 -0.215421 -0.213523 -0.183581 -0.201202 -0.191105 -0.209323 -0.201202 -0.211569 -0.209323 -0.219373 -0.191105 -0.209323 -0.177865 -0.196528 -0.209323 -0.219373 -0.196528 -0.206525 -0.211569 -0.215421 -0.219373 -0.222146 -0.215421 -0.213523 -0.222146 -0.218569 -0.219373 -0.222146 -0.206525 -0.20886 -0.222146 -0.218569 -0.20886 -0.20458 0 -0.0608539 0 -0.0545174 -0.0608539 -0.11083 -0.0545174 -0.0984738 0 -0.0545174 0 -0.0385567 -0.0545174 -0.0984738 -0.0385567 -0.0697472 -0.11083 -0.14959 -0.0984738 -0.130377 -0.14959 -0.177865 -0.130377 -0.153244 -0.0984738 -0.130377 -0.0697472 -0.0934453 -0.130377 -0.153244 -0.0934453 -0.11019 0 -0.0385567 0 -0.0199115 -0.0385567 -0.0697472 -0.0199115 -0.0359657 0 -0.0199115 0 1.27983e-14 -0.0199115 -0.0359657 1.27983e-14 1.74386e-14 -0.0697472 -0.0934453 -0.0359657 -0.0475937 -0.0934453 -0.11019 -0.0475937 -0.0559284 -0.0359657 -0.0475937 1.74386e-14 2.02263e-14 -0.0475937 -0.0559284 2.02263e-14 2.50301e-14 -0.177865 -0.196528 -0.153244 -0.16722 -0.196528 -0.206525 -0.16722 -0.174457 -0.153244 -0.16722 -0.11019 -0.119891 -0.16722 -0.174457 -0.119891 -0.124948 -0.206525 -0.20886 -0.174457 -0.175732 -0.20886 -0.20458 -0.175732 -0.171855 -0.174457 -0.175732 -0.124948 -0.125888 -0.175732 -0.171855 -0.125888 -0.123261 -0.11019 -0.119891 -0.0559284 -0.0612388 -0.119891 -0.124948 -0.0612388 -0.0641489 -0.0559284 -0.0612388 2.50301e-14 2.6726e-14 -0.0612388 -0.0641489 2.6726e-14 1.56016e-14 -0.124948 -0.125888 -0.0641489 -0.064926 -0.125888 -0.123261 -0.064926 -0.0638464 -0.0641489 -0.064926 1.56016e-14 6.40002e-15 -0.064926 -0.0638464 6.40002e-15 2.3146e-15 -0.156665 -0.157015 -0.191557 -0.188613 -0.157015 -0.154308 -0.188613 -0.182382 -0.191557 -0.188613 -0.213523 -0.207871 -0.188613 -0.182382 -0.207871 -0.198893 -0.154308 -0.14895 -0.182382 -0.173359 -0.14895 -0.141345 -0.173359 -0.162036 -0.182382 -0.173359 -0.198893 -0.187137 -0.173359 -0.162036 -0.187137 -0.173145 -0.213523 -0.207871 -0.218569 -0.211368 -0.207871 -0.198893 -0.211368 -0.200948 -0.218569 -0.211368 -0.20458 -0.197248 -0.211368 -0.200948 -0.197248 -0.186935 -0.198893 -0.187137 -0.200948 -0.187871 -0.187137 -0.173145 -0.187871 -0.172692 -0.200948 -0.187871 -0.186935 -0.17418 -0.187871 -0.172692 -0.17418 -0.159513 -0.141345 -0.1319 -0.162036 -0.1489 -0.1319 -0.121015 -0.1489 -0.134427 -0.162036 -0.1489 -0.173145 -0.157448 -0.1489 -0.134427 -0.157448 -0.140566 -0.121015 -0.109079 -0.134427 -0.119078 -0.109079 -0.0964698 -0.119078 -0.103299 -0.134427 -0.119078 -0.140566 -0.122998 -0.119078 -0.103299 -0.122998 -0.105223 -0.173145 -0.157448 -0.172692 -0.155954 -0.157448 -0.140566 -0.155954 -0.138185 -0.172692 -0.155954 -0.159513 -0.143452 -0.155954 -0.138185 -0.143452 -0.126498 -0.140566 -0.122998 -0.138185 -0.11989 -0.122998 -0.105223 -0.11989 -0.10155 -0.138185 -0.11989 -0.126498 -0.109131 -0.11989 -0.10155 -0.109131 -0.0918053 -0.20458 -0.197248 -0.171855 -0.16571 -0.197248 -0.186935 -0.16571 -0.156973 -0.171855 -0.16571 -0.123261 -0.119189 -0.16571 -0.156973 -0.119189 -0.11311 -0.186935 -0.17418 -0.156973 -0.146118 -0.17418 -0.159513 -0.146118 -0.13361 -0.156973 -0.146118 -0.11311 -0.10539 -0.146118 -0.13361 -0.10539 -0.0963857 -0.123261 -0.119189 -0.0638464 -0.0620744 -0.119189 -0.11311 -0.0620744 -0.0591377 -0.0638464 -0.0620744 2.3146e-15 -4.63144e-15 -0.0620744 -0.0591377 -4.63144e-15 1.01429e-14 -0.11311 -0.10539 -0.0591377 -0.0552443 -0.10539 -0.0963857 -0.0552443 -0.050599 -0.0591377 -0.0552443 1.01429e-14 2.25713e-14 -0.0552443 -0.050599 2.25713e-14 2.26712e-14 -0.159513 -0.143452 -0.13361 -0.119906 -0.143452 -0.126498 -0.119906 -0.105445 -0.13361 -0.119906 -0.0963857 -0.0864495 -0.119906 -0.105445 -0.0864495 -0.0759193 -0.126498 -0.109131 -0.105445 -0.0906451 -0.109131 -0.0918053 -0.0906451 -0.0759026 -0.105445 -0.0906451 -0.0759193 -0.0651178 -0.0906451 -0.0759026 -0.0651178 -0.0543478 -0.0963857 -0.0864495 -0.050599 -0.045402 -0.0864495 -0.0759193 -0.045402 -0.0398469 -0.050599 -0.045402 2.26712e-14 1.30604e-14 -0.045402 -0.0398469 1.30604e-14 4.32051e-15 -0.0759193 -0.0651178 -0.0398469 -0.0341183 -0.0651178 -0.0543478 -0.0341183 -0.0283894 -0.0398469 -0.0341183 4.32051e-15 7.05385e-16 -0.0341183 -0.0283894 7.05385e-16 5.97594e-15 0 1.27983e-14 0 0.0199115 1.27983e-14 1.74386e-14 0.0199115 0.0359657 0 0.0199115 0 0.0385567 0.0199115 0.0359657 0.0385567 0.0697472 1.74386e-14 2.02263e-14 0.0359657 0.0475937 2.02263e-14 2.50301e-14 0.0475937 0.0559284 0.0359657 0.0475937 0.0697472 0.0934453 0.0475937 0.0559284 0.0934453 0.11019 0 0.0385567 0 0.0545174 0.0385567 0.0697472 0.0545174 0.0984738 0 0.0545174 0 0.0608539 0.0545174 0.0984738 0.0608539 0.11083 0.0697472 0.0934453 0.0984738 0.130377 0.0934453 0.11019 0.130377 0.153244 0.0984738 0.130377 0.11083 0.14959 0.130377 0.153244 0.14959 0.177865 2.50301e-14 2.6726e-14 0.0559284 0.0612388 2.6726e-14 1.56016e-14 0.0612388 0.0641489 0.0559284 0.0612388 0.11019 0.119891 0.0612388 0.0641489 0.119891 0.124948 1.56016e-14 6.40002e-15 0.0641489 0.064926 6.40002e-15 2.3146e-15 0.064926 0.0638464 0.0641489 0.064926 0.124948 0.125888 0.064926 0.0638464 0.125888 0.123261 0.11019 0.119891 0.153244 0.16722 0.119891 0.124948 0.16722 0.174457 0.153244 0.16722 0.177865 0.196528 0.16722 0.174457 0.196528 0.206525 0.124948 0.125888 0.174457 0.175732 0.125888 0.123261 0.175732 0.171855 0.174457 0.175732 0.206525 0.20886 0.175732 0.171855 0.20886 0.20458 0 0.0608539 0 0.067459 0.0608539 0.11083 0.067459 0.12218 0 0.067459 0 0.0628228 0.067459 0.12218 0.0628228 0.114415 0.11083 0.14959 0.12218 0.162118 0.14959 0.177865 0.162118 0.191105 0.12218 0.162118 0.114415 0.154412 0.162118 0.191105 0.154412 0.183581 0 0.0628228 0 0.0537272 0.0628228 0.114415 0.0537272 0.0983333 0 0.0537272 0 0.0369756 0.0537272 0.0983333 0.0369756 0.0689867 0.114415 0.154412 0.0983333 0.131683 0.154412 0.183581 0.131683 0.157024 0.0983333 0.131683 0.0689867 0.0955529 0.131683 0.157024 0.0955529 0.116903 0.177865 0.196528 0.191105 0.209323 0.196528 0.206525 0.209323 0.219373 0.191105 0.209323 0.183581 0.201202 0.209323 0.219373 0.201202 0.211569 0.206525 0.20886 0.219373 0.222146 0.20886 0.20458 0.222146 0.218569 0.219373 0.222146 0.211569 0.215421 0.222146 0.218569 0.215421 0.213523 0.183581 0.201202 0.157024 0.174147 0.201202 0.211569 0.174147 0.185236 0.157024 0.174147 0.116903 0.133345 0.174147 0.185236 0.133345 0.145212 0.211569 0.215421 0.185236 0.190846 0.215421 0.213523 0.190846 0.191557 0.185236 0.190846 0.145212 0.15286 0.190846 0.191557 0.15286 0.156665 2.3146e-15 -4.63144e-15 0.0638464 0.0620744 -4.63144e-15 1.01429e-14 0.0620744 0.0591377 0.0638464 0.0620744 0.123261 0.119189 0.0620744 0.0591377 0.119189 0.11311 1.01429e-14 2.25713e-14 0.0591377 0.0552443 2.25713e-14 2.26712e-14 0.0552443 0.050599 0.0591377 0.0552443 0.11311 0.10539 0.0552443 0.050599 0.10539 0.0963857 0.123261 0.119189 0.171855 0.16571 0.119189 0.11311 0.16571 0.156973 0.171855 0.16571 0.20458 0.197248 0.16571 0.156973 0.197248 0.186935 0.11311 0.10539 0.156973 0.146118 0.10539 0.0963857 0.146118 0.13361 0.156973 0.146118 0.186935 0.17418 0.146118 0.13361 0.17418 0.159513 2.26712e-14 1.30604e-14 0.050599 0.045402 1.30604e-14 4.32051e-15 0.045402 0.0398469 0.050599 0.045402 0.0963857 0.0864495 0.045402 0.0398469 0.0864495 0.0759193 4.32051e-15 7.05385e-16 0.0398469 0.0341183 7.05385e-16 5.97594e-15 0.0341183 0.0283894 0.0398469 0.0341183 0.0759193 0.0651178 0.0341183 0.0283894 0.0651178 0.0543478 0.0963857 0.0864495 0.13361 0.119906 0.0864495 0.0759193 0.119906 0.105445 0.13361 0.119906 0.159513 0.143452 0.119906 0.105445 0.143452 0.126498 0.0759193 0.0651178 0.105445 0.0906451 0.0651178 0.0543478 0.0906451 0.0759026 0.105445 0.0906451 0.126498 0.109131 0.0906451 0.0759026 0.109131 0.0918053 0.20458 0.197248 0.218569 0.211368 0.197248 0.186935 0.211368 0.200948 0.218569 0.211368 0.213523 0.207871 0.211368 0.200948 0.207871 0.198893 0.186935 0.17418 0.200948 0.187871 0.17418 0.159513 0.187871 0.172692 0.200948 0.187871 0.198893 0.187137 0.187871 0.172692 0.187137 0.173145 0.213523 0.207871 0.191557 0.188613 0.207871 0.198893 0.188613 0.182382 0.191557 0.188613 0.156665 0.157015 0.188613 0.182382 0.157015 0.154308 0.198893 0.187137 0.182382 0.173359 0.187137 0.173145 0.173359 0.162036 0.182382 0.173359 0.154308 0.14895 0.173359 0.162036 0.14895 0.141345 0.159513 0.143452 0.172692 0.155954 0.143452 0.126498 0.155954 0.138185 0.172692 0.155954 0.173145 0.157448 0.155954 0.138185 0.157448 0.140566 0.126498 0.109131 0.138185 0.11989 0.109131 0.0918053 0.11989 0.10155 0.138185 0.11989 0.140566 0.122998 0.11989 0.10155 0.122998 0.105223 0.173145 0.157448 0.162036 0.1489 0.157448 0.140566 0.1489 0.134427 0.162036 0.1489 0.141345 0.1319 0.1489 0.134427 0.1319 0.121015 0.140566 0.122998 0.134427 0.119078 0.122998 0.105223 0.119078 0.103299 0.134427 0.119078 0.121015 0.109079 0.119078 0.103299 0.109079 0.0964698 -0.0964698 -0.0685177 -0.103299 -0.0781913 -0.0685177 -0.0395669 -0.0781913 -0.0517745 -0.103299 -0.0781913 -0.105223 -0.0834916 -0.0781913 -0.0517745 -0.0834916 -0.0602499 -0.0395669 -0.0106987 -0.0517745 -0.0249471 -0.0106987 0.0166951 -0.0249471 0.00104093 -0.0517745 -0.0249471 -0.0